/*--------------------------------*- C++ -*----------------------------------*\
  =========                 |
  \\      /  F ield         | OpenFOAM: The Open Source CFD Toolbox
   \\    /   O peration     | Website:  https://openfoam.org
    \\  /    A nd           | Version:  9
     \\/     M anipulation  |
\*---------------------------------------------------------------------------*/
FoamFile
{
    format      ascii;
    class       volVectorField;
    location    "0";
    object      U;
}
// * * * * * * * * * * * * * * * * * * * * * * * * * * * * * * * * * * * * * //

dimensions      [0 1 -1 0 0 0 0];

internalField   uniform (4 0 0);

boundaryField
{
    top
    {
        type            slip;
    }
    sides
    {
        type            slip;
    }
    outlet
    {
        type            inletOutlet;
        inletValue      uniform (4 0 0);
        value           uniform (4 0 0);
    }
    inlet
    {
        type            fixedValue;
        value           uniform (4 0 0);
    }
    ground
    {
        type            slip;
    }
}


// ************************************************************************* //
